# ODT 1.0
# Table Start
# Title: mmArchive Data Table, Fri Sep 19 15:33:41 EDT 2014
# Columns: {Oxs_RungeKuttaEvolve:evolver:Total energy} {Oxs_RungeKuttaEvolve:evolver:Energy calc count} {Oxs_RungeKuttaEvolve:evolver:Max dm/dt} Oxs_RungeKuttaEvolve:evolver:dE/dt {Oxs_RungeKuttaEvolve:evolver:Delta E} Oxs_UniformExchange::Energy {Oxs_UniformExchange::Max Spin Ang} {Oxs_UniformExchange::Stage Max Spin Ang} {Oxs_UniformExchange::Run Max Spin Ang} Oxs_Demag::Energy    Oxs_FixedZeeman::Energy Oxs_TimeDriver::Iteration {Oxs_TimeDriver::Stage iteration} Oxs_TimeDriver::Stage Oxs_TimeDriver::mx   Oxs_TimeDriver::my   Oxs_TimeDriver::mz   {Oxs_TimeDriver::Last time step} {Oxs_TimeDriver::Simulation time}
# Units:                        J                                             {}                                         deg/ns                                 J/s                                   J                                 J                              deg                                    deg                                      deg                           J                       J                       {}                            {}                          {}                   {}                   {}                   {}                          s                                 s                
                       4.1137255399934242e-18                            1                                            227.25806982374274                   -4.0108394804673734e-11                  0                                9.1174956853289688e-20             0.86177742924971468                    0.86177742924971468                      0.86177742924971468            5.3712081175918755e-19   3.4854297713809475e-18      0                             0                           0                     0.96658440156522207  0.12599483782127918 -8.2693013609969048e-17        0                                0                         
                       4.1136851031285468e-18                            98                                           231.9294401254536                    -4.1094072083541347e-11                 -1.0167652233901589e-24              9.1227253457685288e-20             0.86198674494666605                    0.86198674494666605                      0.86198674494666605            5.3722900059265652e-19   3.4852288490782049e-18      16                            15                          1                     0.96655042324136997  0.12611195764714359 -0.0012739592222352273        2.4756953336865801e-14              9.9999999999999998e-13       
                       4.1136426994346035e-18                            219                                          239.75425495300593                   -4.4037623182470707e-11                 -9.480253375674689e-25              9.1361713114775646e-20             0.86257715980931637                    0.86257715980931637                      0.86257715980931637            5.3757416469030621e-19   3.4847068216295222e-18      36                            19                          2                     0.96646209038771558  0.12641595643581133 -0.0025436220753848522        2.1548185034002687e-14              2e-12                     
                       4.1135963850014769e-18                            328                                          250.5965549528444                    -4.8912255873170477e-11                 -2.3994819578812549e-24              9.1579786678299302e-20             0.86378633097452984                    0.86378633097452984                      0.86378633097452984            5.3815244285358139e-19   3.4838641554695965e-18      55                            18                          3                     0.96631939100530873  0.126906042387638   -0.0038087982821858445        4.9200837175709056e-14              3.0000000000000001e-12       
                       4.1135442423424549e-18                            443                                          264.20342820549416                   -5.5690573776734426e-11                 -1.0590768355612304e-24              9.188208310484154e-20             0.86482486111091572                    0.86482486111091572                      0.86482486111091572            5.3896127620167863e-19   3.4827008830359351e-18      75                            19                          4                     0.96612218057642896  0.12758133843571184 -0.005069286285072438        1.904227229655768e-14              3.9999999999999999e-12       
                       4.1134843810644855e-18                            558                                          280.23074055829551                   -6.4345960916449127e-11                 -1.435660056408008e-24              9.2268778570603659e-20             0.86560925415536916                    0.86560925415536916                      0.86560925415536916            5.3999899455892967e-19   3.481216607934952e-18      95                            19                          5                     0.9658701838670839   0.12844088454972938 -0.0063248766061138866        2.2348769944704342e-14              4.9999999999999997e-12       
                       4.1134149377511466e-18                            673                                          298.27568631581192                   -7.4851203286516102e-11                 -1.112727009006658e-24              9.2739765387601375e-20             0.86618369962747233                    0.86618369962747233                      0.86618369962747233            5.4126465610264982e-19   3.479410516260895e-18      115                           19                          6                     0.96556299801169532  0.12948363783305647 -0.0075753533691033312        1.4882735019592927e-14              5.9999999999999995e-12       
                       4.1133340764938474e-18                            788                                          317.86588444375417                   -8.7178106664616185e-11                 -1.5669960601149901e-24              9.32947264839932e-20             0.86673268637573797                    0.86673268637573797                      0.86673268637573797            5.4275795966766497e-19   3.4772813903421895e-18      135                           19                          7                     0.96520009614396374  0.13070847198303995 -0.0088204950431711709        1.7999218228631209e-14              6.9999999999999993e-12       
                       4.1132399899397373e-18                            903                                          338.70054877872661                   -1.012979220798494e-10                 -1.9398930440337684e-24              9.3933178515536942e-20             0.86741596059371751                    0.86741596059371751                      0.86741596059371751            5.4447918734885574e-19   3.4748276240753448e-18      155                           19                          8                     0.96478083141082593  0.13211417648156948 -0.010060074780185252        1.9177610705261246e-14              7.9999999999999998e-12       
                       4.1131309000760118e-18                            1018                                         360.00950361727968                   -1.171806976762372e-10                 -2.3629273346195328e-24              9.4654497880554776e-20             0.86847013446935994                    0.86847013446935994                      0.86847013446935994            5.464291626300343e-19   3.4720472395654226e-18      175                           19                          9                     0.96430444131672788  0.1336994556483132  -0.011293860520190172        2.0193974976130657e-14              8.9999999999999996e-12       
                       4.1130050594143782e-18                            1133                                         382.26664735646898                   -1.3479526079197906e-10                 -2.8477223624569072e-24              9.5457937183828956e-20             0.86972951461575998                    0.86972951461575998                      0.86972951461575998            5.4860921727732504e-19   3.4689379049532249e-18      195                           19                          10                    0.96377005237608193  0.13546292761948625 -0.012521614961949479        2.1156963121391985e-14              9.9999999999999994e-12       
                       4.1128607522805023e-18                            1248                                         405.08357677373448                   -1.5410913441538387e-10                 -3.3743073332512052e-24              9.634263524178148e-20             0.87121335404791189                    0.87121335404791189                      0.87121335404791189            5.5102116367786981e-19   3.4654969533608512e-18      215                           19                          11                    0.96317668506329301  0.13740312329103405 -0.013743095459826767        2.1927034323821045e-14              1.0999999999999999e-11       
                       4.1126962962056374e-18                            1363                                         427.06905196249278                   -1.7508840133202408e-10                 -3.9307809464657967e-24              9.7307626263045213e-20             0.87427462220802066                    0.87427462220802066                      0.87427462220802066            5.5366726704203022e-19   3.4617214029005619e-18      235                           19                          12                    0.96252325904932978  0.13951848525802651 -0.014958053889988762        2.2481767803424571e-14              1.1999999999999999e-11       
                       4.1125100434216699e-18                            1478                                         451.91806527580684                   -1.9769756855809441e-10                 -4.5349852381356155e-24              9.8351836473414175e-20             0.87902784315314075                    0.87902784315314075                      0.87902784315314075            5.5655022923627589e-19   3.4576079777119796e-18      255                           19                          13                    0.96180859872045543  0.14180736676976066 -0.016166236516424771        2.2970291695190148e-14              1.2999999999999999e-11       
                       4.1123003824702713e-18                            1593                                         476.71703471794706                   -2.2189945439251619e-10                 -5.1947326313467502e-24              9.9474084883436476e-20             0.88368193885953294                    0.88368193885953294                      0.88368193885953294            5.5967316761858222e-19   3.4531531299682527e-18      275                           19                          14                    0.96103143896652421  0.14426803072600705 -0.01736738388864122        2.3441289728950517e-14              1.3999999999999999e-11       
                       4.1120657399217689e-18                            1708                                         500.30593786726649                   -2.4765515485013186e-10                 -5.8947089449098129e-24              1.0067314038344864e-19             0.88834548020751403                    0.88834548020751403                      0.88834548020751403            5.6303953694108525e-19   3.4483530625972348e-18      295                           19                          15                    0.96019043118849134  0.1468986488191035  -0.018561230811570937        2.3832556439528234e-14              1.5e-11                   
                       4.1118045821614919e-18                            1823                                         525.18474040170474                   -2.7492408939121812e-10                 -6.6345777492250455e-24              1.0194756519741416e-19             0.89279950733252345                    0.89279950733252345                      0.89279950733252345            5.666532636477329e-19   3.4432037533163447e-18      315                           19                          16                    0.95928414965058184  0.14969730061123865 -0.01974750614636921        2.4162207628255775e-14              1.6e-11                   
                       4.1115154171109351e-18                            1938                                         550.38998014499271                   -3.0366348845295279e-10                 -7.4197903288039254e-24              1.0329596995173602e-19             0.89734595807577111                    0.89734595807577111                      0.89734595807577111            5.7051846849180401e-19   3.4377009786673951e-18      335                           19                          17                    0.95831109788052893  0.15266197288644759 -0.020925933491564932        2.4463354285463827e-14              1.6999999999999999e-11       
                       4.1111967963463923e-18                            2053                                         575.2991406930646                    -3.3382915889825478e-10                 -8.2456807992633958e-24              1.0471661737451609e-19             0.90157811340154137                    0.90157811340154137                      0.90157811340154137            5.746398392976511e-19   3.431840339674225e-18      355                           19                          18                    0.95726971553091877  0.155790559123929   -0.022096230087162619        2.4728645672350331e-14              1.7999999999999999e-11       
                       4.1108473166352696e-18                            2168                                         601.0206459110309                    -3.6537442306745206e-10                 -9.1120801582237379e-24              1.0620822777828009e-19             0.90575111322820745                    0.90575111322820745                      0.90575111322820745            5.7902180364217306e-19   3.425617285214816e-18      375                           19                          19                    0.9561583847321754   0.15908085960760535 -0.023258109181723          2.4966583347616698e-14              1.8999999999999999e-11       
                       4.110465622668053e-18                            2283                                         624.17059695140063                   -3.9825073265016565e-10                 -1.0020461400144986e-23              1.0776842994187148e-19             0.90987439687252392                    0.90987439687252392                      0.90987439687252392            5.8367004817390867e-19   3.4190271445522732e-18      395                           19                          20                    0.95497543851558853  0.1625305791788392  -0.024411278089438149        2.5187975345005909e-14              1.9999999999999999e-11       
                       4.1100504077687377e-18                            2398                                         647.83323653821526                   -4.324089856301544e-10                 -1.0961160950628353e-23              1.093956295010528e-19             0.91383407087426594                    0.91383407087426594                      0.91383407087426594            5.8858963509278672e-19   3.4120651431748984e-18      415                           19                          21                    0.95371916583161631  0.16613733138564044 -0.02555543907241355        2.5375042023538705e-14              2.0999999999999999e-11       
                       4.1096004160275075e-18                            2513                                         673.41244546745099                   -4.6779643806487262e-10                 -1.1951539452009587e-23              1.1108844881963429e-19             0.91727759329196967                    0.91727759329196967                      0.91727759329196967            5.9378553273147592e-19   3.4047264344763972e-18      435                           19                          22                    0.95238781967871255  0.16989863587293544 -0.026690293361192118        2.5573833387222166e-14              2.1999999999999998e-11       
                       4.1091144456974066e-18                            2628                                         697.65748533822375                   -5.0435816441259888e-10                 -1.2951777868671571e-23              1.1284410818101542e-19             0.92049912261479949                    0.92049912261479949                      0.92049912261479949            5.9926420187024396e-19   3.3970061356461471e-18      455                           19                          23                    0.95097962648915524  0.17381191643238109 -0.027815537842041271        2.5704133617560322e-14              2.2999999999999998e-11       
                       4.1085913498540418e-18                            2743                                         719.05024574206175                   -5.420394523348837e-10                 -1.4022089514139488e-23              1.1465986263110618e-19             0.9239427641521456                     0.9239427641521456                       0.9239427641521456             6.0503214475245727e-19   3.3888993424704784e-18      475                           19                          24                    0.94949279115580476  0.1778745068131711  -0.028930864201194353        2.5892862353680908e-14              2.3999999999999998e-11       
                       4.1080300367433761e-18                            2858                                         743.09479151298024                   -5.8078423612577108e-10                 -1.5082637092355072e-23              1.1653420307643337e-19             0.92726511304455639                    0.92726511304455639                      0.92726511304455639            6.1109468649602e-19   3.3804011471709228e-18      495                           19                          25                    0.94792550237993367  0.18208365366048743 -0.030035964503883864        2.5992359397929804e-14              2.4999999999999998e-11       
                       4.1074294723622016e-18                            2973                                         763.95685750231519                   -6.2053292378352444e-10                 -1.6223674252012281e-23              1.1846573025107237e-19             0.92986843572614508                    0.92986843572614508                      0.92986843572614508            6.1745706737642578e-19   3.3715066747347039e-18      515                           19                          26                    0.94627594198498854  0.18643651347277937 -0.031130534330098041        2.6167035240212526e-14              2.5999999999999997e-11       
                       4.1067886836539622e-18                            3088                                         783.29397588982681                   -6.6122365279231736e-10                 -1.7366489857042215e-23              1.2045182249531177e-19             0.93170867902791343                    0.93170867902791343                      0.93170867902791343            6.2412574149291722e-19   3.362211119665734e-18      535                           19                          27                    0.94454229467198092  0.19093015143222342 -0.032214270333520173        2.6285761264192124e-14              2.6999999999999997e-11       
                       4.1061067595459529e-18                            3203                                         805.86016184430684                   -7.0279463268682858e-10                 -1.8549143602159452e-23              1.2248887854920073e-19             0.93320367097517509                    0.93320367097517509                      0.93320367097517509            6.3110811422370748e-19   3.3525097667730448e-18      555                           19                          28                    0.94272275448182019  0.19556154614703947 -0.033286867792617116        2.6414347369092453e-14              2.7999999999999997e-11       
                       4.1053828502275537e-18                            3318                                         825.85636782500592                   -7.4518514134812061e-10                 -1.9716403154618447e-23              1.2457352910007329e-19             0.93467770442721221                    0.93467770442721221                      0.93467770442721221            6.3841131987468964e-19   3.3423980012527903e-18      575                           19                          29                    0.94081552874610486  0.20032759662074187 -0.034348022573191014        2.647861884728219e-14              2.8999999999999997e-11       
                       4.1046161665616427e-18                            3433                                         846.88760341881414                   -7.8833427639724188e-10                 -2.0934390497511607e-23              1.2670340341739721e-19             0.93604093520838261                    0.93604093520838261                      0.93604093520838261            6.4604144059403531e-19   3.3318713225502099e-18      595                           19                          30                    0.93881884260973891  0.20522512663518219 -0.035397436266270149        2.657480751304614e-14              3e-11                     
                       4.1038059810355117e-18                            3548                                         869.15068797664674                   -8.3217951233905357e-10                 -2.2109129934632901e-23              1.2887700425340307e-19             0.9370365324155584                     0.9370365324155584                       0.9370365324155584             6.540036083590601e-19   3.3209253684230489e-18      615                           19                          31                    0.93673094573425064  0.21025088579277215 -0.036434820725684151        2.6586599249969798e-14              3.1000000000000003e-11       
                       4.1029516297451173e-18                            3663                                         887.36338872619274                   -8.7665618572745749e-10                 -2.3366097704302332e-23              1.3109281703120299e-19             0.93736556414133432                    0.93736814676855318                      0.93736814676855318            6.6230286698663332e-19   3.3095559457272811e-18      635                           19                          32                    0.93455012063893284  0.21540154950443868 -0.037459899562970411        2.6671926619487087e-14              3.2000000000000006e-11       
                       4.1020525142999235e-18                            3778                                         909.79579444747662                   -9.2169807608467557e-10                 -2.4641054383619318e-23              1.3334867504777369e-19             0.93698222370741147                    0.93736556414133432                      0.93736814676855318            6.7094478062145184e-19   3.2977590586306984e-18      655                           19                          33                    0.93227469063789214  0.22067372065606136 -0.038472407504294509        2.6752098526414998e-14              3.3000000000000009e-11       
                       4.1011081024696639e-18                            3893                                         926.68475948500668                   -9.6723919236612054e-10                 -2.6080575298059298e-23              1.3564145799042064e-19             0.93821101279226149                    0.93823613431803365                      0.93823613431803365            6.7993571603530851e-19   3.2855309284439351e-18      675                           19                          34                    0.92990302602934727  0.22606393427017527 -0.039472088875436566        2.6981263475428162e-14              3.4000000000000012e-11       
                       4.1001179274578649e-18                            4008                                         947.73095290814467                   -1.0132146612930491e-09                 -2.7598001780541348e-23              1.379675032863046e-19             0.94091763080642365                    0.94091763080642365                      0.94091763080642365            6.8928242012212454e-19   3.2728680040494356e-18      695                           19                          35                    0.92743354806306333  0.23156866403595738 -0.040458697918908694        2.725509327842702e-14              3.5000000000000015e-11       
                       4.0990815861457246e-18                            4123                                         964.88960794069646                   -1.0595623178889869e-09                 -2.9057088229468158e-23              1.4032288003241391e-19             0.94347330051158362                    0.94347330051158362                      0.94347330051158362            6.989917392509238e-19   3.2597669668623863e-18      715                           19                          36                    0.92486473158691518  0.23718432975706658 -0.041432000166931673        2.7440307324774043e-14              3.6000000000000018e-11       
                       4.0979987364766718e-18                            4238                                         982.93501592192888                   -1.1062220885886209e-09                 -3.0390698474314267e-23              1.4270440380847235e-19             0.94590421594376362                    0.94592902442346805                      0.94592902442346805            7.0906960117077352e-19   3.2462247314974261e-18      735                           19                          37                    0.92219510646126845  0.24290730441014363 -0.042391776269622344        2.7488601074432962e-14              3.7000000000000021e-11       
                       4.0968690957677908e-18                            4353                                         1000.7506592012537                   -1.1531355711627489e-09                 -3.1687363943041267e-23              1.4510926660832882e-19             0.94848600650890136                    0.94848600650890136                      0.94848600650890136            7.1952137607227052e-19   3.2322384530871913e-18      755                           19                          38                    0.91942326039835953  0.24873391904314349 -0.043337825321768143        2.7494823427139542e-14              3.8000000000000024e-11       
                       4.0956924386520711e-18                            4468                                         1015.46938114011                     -1.2002463169940397e-09                 -3.2984598084589205e-23              1.4753560808508339e-19             0.95072336169441574                    0.95072820796791979                      0.95072820796791979            7.3035129946976107e-19   3.2178055310972269e-18      775                           19                          39                    0.91654784096368969  0.25466046830829348 -0.044269968191058509        2.7496490856327676e-14              3.9000000000000027e-11       
                       4.0944685960269194e-18                            4583                                         1034.3296026179523                   -1.247498155814469e-09                 -3.4231218661356534e-23              1.4998235963265699e-19             0.95320426340432884                    0.95320426340432884                      0.95320426340432884            7.4156261665076678e-19   3.2029236197434962e-18      795                           19                          40                    0.91356755895422592  0.26068321363970554 -0.045188050548650362        2.7454287006926455e-14              4.000000000000003e-11       
                       4.0931974545754997e-18                            4698                                         1046.9453078199797                   -1.2948360260266366e-09                 -3.5496968135391179e-23              1.524482222587314e-19             0.95570316001860478                    0.95570316001860478                      0.95570316001860478            7.5315859038204706e-19   3.1875906419347213e-18      815                           19                          41                    0.91048119276655859  0.26679838662613875 -0.046091943280599908        2.7428116215637427e-14              4.1000000000000033e-11       
                       4.0918789549330398e-18                            4813                                         1065.1648667273687                   -1.3422069930106095e-09                 -3.6756568271207537e-23              1.5493207316307892e-19             0.95794314209552944                    0.9580776588693678                       0.9580776588693678             7.6514208845941438e-19   3.171804793310546e-18      835                           19                          42                    0.90728759046859309  0.27300219460231229 -0.046981543097707287        2.7398516471885522e-14              4.2000000000000036e-11       
                       4.0905130900919002e-18                            4928                                         1081.8345575630678                   -1.3895591254782912e-09                 -3.8051814742937982e-23              1.5743292181770164e-19             0.96070422957885759                    0.96070422957885759                      0.96070422957885759            7.7751562028631167e-19   3.1555645479878864e-18      855                           19                          43                    0.90398567209968661  0.27929082489906221 -0.047856773321650517        2.7396971901524036e-14              4.3000000000000039e-11       