# ODT 1.0
# Table Start
# Title: mmArchive Data Table, Fri Sep 19 20:22:22 EDT 2014
# Columns: {Oxs_RungeKuttaEvolve:evolver:Total energy} {Oxs_RungeKuttaEvolve:evolver:Energy calc count} {Oxs_RungeKuttaEvolve:evolver:Max dm/dt} Oxs_RungeKuttaEvolve:evolver:dE/dt {Oxs_RungeKuttaEvolve:evolver:Delta E} Oxs_UniformExchange::Energy {Oxs_UniformExchange::Max Spin Ang} {Oxs_UniformExchange::Stage Max Spin Ang} {Oxs_UniformExchange::Run Max Spin Ang} Oxs_Demag::Energy    Oxs_FixedZeeman::Energy Oxs_TimeDriver::Iteration {Oxs_TimeDriver::Stage iteration} Oxs_TimeDriver::Stage Oxs_TimeDriver::mx   Oxs_TimeDriver::my   Oxs_TimeDriver::mz   {Oxs_TimeDriver::Last time step} {Oxs_TimeDriver::Simulation time}
# Units:                        J                                             {}                                         deg/ns                                 J/s                                   J                                 J                              deg                                    deg                                      deg                           J                       J                       {}                            {}                          {}                   {}                   {}                   {}                          s                                 s                
                       5.8944228286883869e-18                            1                                            255.00195035823774                   -3.4212343536387542e-11                  0                                9.1174956853289688e-20             0.86177742924971468                    0.86177742924971468                      0.86177742924971468            5.3712081175918774e-19   5.2661270600759094e-18      0                             0                           0                     0.96658440156522207  0.12599483782127918 -8.2693013609969048e-17        0                                0                         
                       5.8943883458387429e-18                            98                                           259.3407674271773                    -3.5024954076468882e-11                 -8.6611865270868611e-25              9.1276820004516886e-20             0.86223014337003179                    0.86223014337003179                      0.86223014337003179            5.3715625309099873e-19   5.2659552727432276e-18      16                            15                          1                     0.96655935272528581  0.12595420050889033  0.00028375755178430492        2.4742710021295624e-14              9.9999999999999998e-13       
                       5.8943522398142794e-18                            219                                          267.19606534230962                   -3.7455144915880037e-11                 -7.8941323547738289e-25              9.1539590248869017e-20             0.86344027106881449                    0.86344027106881449                      0.86344027106881449            5.3730400178176474e-19   5.2655086477836458e-18      36                            19                          2                     0.96649441474482434  0.12584750187024929  0.00056628127953981477        2.1095364940059213e-14              2e-12                     
                       5.8943129043766678e-18                            328                                          278.31608478624776                   -4.1481253544946544e-11                 -2.0254063073010884e-24              9.1962499254348039e-20             0.86559351156244257                    0.86559351156244257                      0.86559351156244257            5.3756320069070353e-19   5.2647872044316158e-18      55                            18                          3                     0.96638955583894059  0.12567494136423238  0.00084740184966374237        4.8966007297432202e-14              3.0000000000000001e-12       
                       5.8942687548903758e-18                            443                                          292.39169581700236                   -4.7080438745189418e-11                 -8.9533275320963776e-25              9.2544375103659428e-20             0.86806703464996082                    0.86806703464996082                      0.86806703464996082            5.3793402091133134e-19   5.2637903588753853e-18      75                            19                          4                     0.96624463343757505  0.12543670457174294  0.0011269578333216346        1.9041618995191153e-14              3.9999999999999999e-12       
                       5.8942182294765176e-18                            558                                          309.00743717085163                   -5.4230184411255601e-11                 -1.2170823848120417e-24              9.328388480105199e-20             0.87090475146679114                    0.87090475146679114                      0.87090475146679114            5.3841741193306209e-19   5.262516932742403e-18      95                            19                          5                     0.96605939563348708  0.12513296401489332  0.0014047984706112725        2.2479783144999283e-14              4.9999999999999997e-12       
                       5.894159789301386e-18                            673                                          327.79856578915258                   -6.2907073533281922e-11                 -9.3991944151041325e-25              9.4179637322995091e-20             0.87407422785027566                    0.87407422785027566                      0.87407422785027566            5.3901498574367103e-19   5.2609651662347204e-18      115                           19                          6                     0.96583348368468658  0.12476387895649464  0.0016807859389766852        1.4958152980269886e-14              5.9999999999999995e-12       
                       5.8940919193802761e-18                            788                                          348.12484867159736                   -7.3086463036235729e-11                 -1.3162235560735789e-24              9.5230237535461359e-20             0.87766464788723186                    0.87766464788723186                      0.87766464788723186            5.3972894854823486e-19   5.2591327332965804e-18      135                           19                          7                     0.96556643497877925  0.1243295947456842   0.0019547973131945522        1.8033418257442084e-14              6.9999999999999993e-12       
                       5.8940131298123862e-18                            903                                          369.82976108554544                   -8.4743007069124983e-11                 -1.6239684642287193e-24              9.6434315992290432e-20             0.8817862313490118                     0.8817862313490118                       0.8817862313490118             5.405620555657545e-19   5.2570167582543414e-18      155                           19                          8                     0.96525768632255715  0.12383024189070657  0.0022267262774926123        1.9190363234815015e-14              7.9999999999999998e-12       
                       5.8939219566568071e-18                            1018                                         391.59750709471825                   -9.7850129665741059e-11                 -1.9725681984685391e-24              9.7790543871079786e-20             0.88644537361843989                    0.88644537361843989                      0.88644537361843989            5.4151757903888379e-19   5.2546138337468438e-18      175                           19                          9                     0.96490657750515108  0.12326593495419179  0.0024964846149577212        2.0187872911634974e-14              8.9999999999999996e-12       
                       5.8938169630933817e-18                            1133                                         414.4594431910333                    -1.1238010918427026e-10                 -2.3726652896896199e-24              9.9297639033601325e-20             0.89167044756039271                    0.89167044756039271                      0.89167044756039271            5.42599284203473e-19   5.2519200398563075e-18      195                           19                          10                    0.96451235510682676  0.12263677133606699  0.0027640034861614302        2.1143176335335779e-14              9.9999999999999994e-12       
                       5.8936967405808438e-18                            1248                                         438.306899246797                     -1.2830410589908029e-10                 -2.8074901427722774e-24              1.0095436594800636e-19             0.89748841402392954                    0.89748841402392954                      0.89748841402392954            5.43811410263831e-19   5.2489309643690066e-18      215                           19                          11                    0.96407417653010252  0.12194282999598864  0.0030292345032245293        2.1912648482926252e-14              1.0999999999999999e-11       
                       5.8935599100045549e-18                            1363                                         460.81525198162535                   -1.455921390811416e-10                 -3.2660583599537075e-24              1.0275953454584855e-19             0.90377264071677421                    0.90377264071677421                      0.90377264071677421            5.4515865136657477e-19   5.2456417240921316e-18      235                           19                          12                    0.96359111423302712  0.12118417016010963  0.003292150603437986        2.2464101992688919e-14              1.1999999999999999e-11       
                       5.893405122817925e-18                            1478                                         484.24641885734781                   -1.642130633591655e-10                 -3.7635806179683136e-24              1.0471198818423455e-19             0.9105266007105508                     0.9105266007105508                       0.9105266007105508             5.4664614746586433e-19   5.2420469871678266e-18      255                           19                          13                    0.96306216014400303  0.12036083005403296  0.003552746723744297        2.2949856684143072e-14              1.2999999999999999e-11       
                       5.8932310621839336e-18                            1593                                         506.09999084101707                   -1.8413456886192395e-10                 -4.306804963599106e-24              1.0681059536199548e-19             0.91764369567301407                    0.91764369567301407                      0.91764369567301407            5.4827947053749223e-19   5.2381409962844458e-18      275                           19                          14                    0.96248623023441526  0.1194728256997513   0.0038110402799022181        2.3420131413308302e-14              1.3999999999999999e-11       
                       5.8930364441260976e-18                            1708                                         527.07663271695139                   -2.0532325168429927e-10                 -4.8802085275044557e-24              1.0905428959256944e-19             0.92524278574108332                    0.92524278574108332                      0.92524278574108332            5.5006456201565436e-19   5.2339175925178738e-18      295                           19                          15                    0.96186216919150791  0.11852014981283551  0.0040670714653399144        2.379857108410873e-14              1.5e-11                   
                       5.8928200186148018e-18                            1823                                         549.45856344045512                   -2.2774473073714736e-10                 -5.4904891042501021e-24              1.1144192272882578e-19             0.93340258802785947                    0.93340258802785947                      0.93340258802785947            5.520078555720392e-19   5.2293702403139371e-18      315                           19                          16                    0.96118875528653214  0.11750277080755372  0.0043209033051160532        2.4137616636308552e-14              1.6e-11                   
                       5.8925805705315436e-18                            1938                                         572.27495757939687                   -2.5136337656204398e-10                 -6.1355411160692711e-24              1.1397248590600104e-19             0.94191517381969836                    0.94191517381969836                      0.94191517381969836            5.5411603234673248e-19   5.2244920522788101e-18      335                           19                          17                    0.9604647051574442   0.11642063207975298  0.0045726216585458687        2.4437889099824456e-14              1.6999999999999999e-11       
                       5.8923169208549297e-18                            2053                                         595.63014279578806                   -2.7614289921262118e-10                 -6.810507451099966e-24              1.1664473811609115e-19             0.95077464154844737                    0.95077464154844737                      0.95077464154844737            5.5639636728981807e-19   5.2192758154490209e-18      355                           19                          18                    0.95968867888816178  0.11527365118475776  0.0048223347681554925        2.469105252452264e-14              1.7999999999999999e-11       
                       5.8920279273228027e-18                            2168                                         618.66261709480136                   -3.0204572408547696e-10                 -7.5247329170005772e-24              1.1945792165908503e-19             0.96001135691719186                    0.96001135691719186                      0.96001135691719186            5.588559907178171e-19   5.2137140149459e-18      375                           19                          19                    0.95885928446177326  0.11406171977457974  0.0050701731929117273        2.4939892287750753e-14              1.8999999999999999e-11       
                       5.8917124858616251e-18                            2283                                         639.64518698566837                   -3.2903351199126431e-10                 -8.2692382723010466e-24              1.2241039358202722e-19             0.96960854369442839                    0.96960854369442839                      0.96960854369442839            5.6150322607285757e-19   5.2077988662067405e-18      395                           19                          20                    0.95797508388993768  0.1127847031671015   0.0053162884917530243        2.5158468181651501e-14              1.9999999999999999e-11       
                       5.8913695304611863e-18                            2398                                         660.92051199714706                   -3.5706823223616286e-10                 -9.0376015943168829e-24              1.2550121610812292e-19             0.97936907785793037                    0.97936907785793037                      0.97936907785793037            5.6434598309494676e-19   5.2015223312581166e-18      415                           19                          21                    0.95703459627720411  0.11144244029839243  0.0055608532241658293        2.5336332594381177e-14              2.0999999999999999e-11       
                       5.8909980339629093e-18                            2513                                         684.05691669953023                   -3.8610995473247705e-10                 -9.854078254918259e-24              1.2872972624447577e-19             0.98946973586758458                    0.98946973586758458                      0.98946973586758458            5.6739215893158684e-19   5.1948761487868467e-18      435                           19                          22                    0.95603630326194267  0.11003474488568184  0.0058040600196934081        2.5546492079216493e-14              2.1999999999999998e-11       
                       5.8905970098099907e-18                            2628                                         704.77641651964473                   -4.1611791709901643e-10                 -1.0668744817944238e-23              1.3209408523968892e-19             0.99982925441258763                    0.99982925441258763                      0.99982925441258763            5.7065105578008779e-19   5.1878518687902142e-18      455                           19                          23                    0.95497865551480954  0.10856140547489627  0.0060461193855313039        2.5662977477934789e-14              2.2999999999999998e-11       
                       5.8901655117152065e-18                            2743                                         723.41121845329451                   -4.4705235282470588e-10                 -1.1552624819040189e-23              1.3559247797328064e-19             1.0104737182557586                     1.0104737182557586                       1.0104737182557586             5.7413216681014192e-19   5.1804408669317846e-18      475                           19                          24                    0.95386007536312023  0.10702218584471691  0.0062872591712331812        2.5865363574583586e-14              2.3999999999999998e-11       
                       5.8897026329739493e-18                            2858                                         742.47035698940522                   -4.7887358710931839e-10                 -1.2419435592958984e-23              1.3922420029715463e-19             1.0211688063571949                     1.0211688063571949                       1.0211688063571949             5.7784407247429381e-19   5.1726343602025006e-18      495                           19                          25                    0.95267895935369706  0.10541682713654581  0.0065277243466133287        2.5957482891058349e-14              2.4999999999999998e-11       
                       5.8892075072602109e-18                            2973                                         758.27803087048926                   -5.1154039562668348e-10                 -1.3357193783455915e-23              1.4298871310205034e-19             1.0324744318959496                     1.0324744318959496                       1.0324744318959496             5.8179535430335651e-19   5.1644234398548042e-18      515                           19                          26                    0.95143368404129003  0.10374505008989347  0.0067677749878537604        2.6133900431995854e-14              2.5999999999999997e-11       
                       5.8886793099410403e-18                            3088                                         773.39073320567502                   -5.4501097067490746e-10                 -1.4284627075039467e-23              1.468844436871573e-19             1.0438094588857212                     1.0438094588857212                       1.0438094588857212             5.8599576084465157e-19   5.1557991054092309e-18      535                           19                          27                    0.95012261214925875  0.10200655631159546  0.0070076835122884398        2.6231282775853739e-14              2.6999999999999997e-11       
                       5.888117257731648e-18                            3203                                         789.39500529626559                   -5.7924463792257875e-10                 -1.5265155233316549e-23              1.5090894473721546e-19             1.0553733959370422                     1.0553733959370422                       1.0553733959370422             5.9045602980692659e-19   5.1467522831875062e-18      555                           19                          28                    0.94874409582483599  0.10020102954516025  0.0072477329903164606        2.6374445132642405e-14              2.7999999999999997e-11       
                       5.8875206070195009e-18                            3318                                         802.57293700554249                   -6.1420278402541974e-10                 -1.6219694766240115e-23              1.5505994660322933e-19             1.06731826934487                       1.06731826934487                         1.06731826934487               5.9518682718884159e-19   5.1372738332274306e-18      575                           19                          29                    0.94729647751213231  0.098328138069047416  0.0074882165753809285        2.6427907683241737e-14              2.8999999999999997e-11       
                       5.8868886521480189e-18                            3433                                         818.49531860044976                   -6.4984787914483458e-10                 -1.7229446177879054e-23              1.5933606731663021e-19             1.0792712738234513                     1.0792712738234513                       1.0792712738234513             6.0019802628806822e-19   5.1273545585433207e-18      595                           19                          30                    0.94577809107590372  0.0963875381629858   0.007729436810933861        2.6532645979552617e-14              3e-11                     
                       5.8862207249199746e-18                            3548                                         833.21806455534272                   -6.8614237948477838e-10                 -1.8212848574199229e-23              1.6373674420618468e-19             1.0915533801083444                     1.0915533801083444                       1.0915533801083444             6.0549875681747077e-19   5.1169852238963196e-18      615                           19                          31                    0.94418726467084058  0.094378877803238559  0.0079717039795256205        2.6562768313962781e-14              3.1000000000000003e-11       
                       5.8855161949607203e-18                            3663                                         845.3175529800501                    -7.2304822733351989e-10                 -1.9233085982087204e-23              1.6826145215944116e-19             1.1038853076939004                     1.1038853076939004                       1.1038853076939004             6.1109816112083163e-19   5.1061565816804472e-18      635                           19                          32                    0.94252232503008193  0.092301799889083519  0.0082153335097157887        2.6618344438022988e-14              3.2000000000000006e-11       
                       5.8847744701036452e-18                            3778                                         860.1606719108421                    -7.6052709240080221e-10                 -2.0312506754838816e-23              1.7290913244182743e-19             1.1164015835448562                     1.1164015835448562                       1.1164015835448562             6.1700594179534749e-19   5.0948593958664704e-18      655                           19                          33                    0.94078160144125478  0.090155945176332242  0.0084606433386476953        2.6726303648961775e-14              3.3000000000000009e-11       
                       5.8839949959911327e-18                            3893                                         869.38041009095923                   -7.9854181989757731e-10                 -2.1468725613929268e-23              1.7767787344799587e-19             1.1294482603285108                     1.1294482603285108                       1.1294482603285108             6.2323266445729199e-19   5.0830844580858451e-18      675                           19                          34                    0.93896342828035784  0.087940955019014971  0.0087079516703482095        2.6902372071082369e-14              3.4000000000000012e-11       
                       5.8831772545515575e-18                            4008                                         883.21851423884743                   -8.3705694353786184e-10                 -2.2718830611298944e-23              1.8256527154877583e-19             1.1424989684975801                     1.1424989684975801                       1.1424989684975801             6.297893890678636e-19   5.0708225939349179e-18      695                           19                          35                    0.93706614557838919  0.085656474846557681  0.0089575756182293451        2.7158517243229429e-14              3.5000000000000015e-11       
                       5.8823207617641557e-18                            4123                                         890.35651908702187                   -8.760400538004983e-10                 -2.3956164162728712e-23              1.8756864358097584e-19             1.1559775273148891                     1.1559775273148891                       1.1559775273148891             6.3668745463675826e-19   5.0580646635464215e-18      715                           19                          36                    0.93508809847619823  0.083302157841968219  0.0092098300764694337        2.7362848127537378e-14              3.6000000000000018e-11       
                       5.8814250646914394e-18                            4238                                         900.37279977990443                   -9.1546132923884897e-10                 -2.5084082005308303e-23              1.9268596482889384e-19             1.1699145427643092                     1.1699145427643092                       1.1699145427643092             6.4393754294953457e-19   5.0448015569130113e-18      735                           19                          37                    0.93302763552856416  0.08087766954850438  0.009465027299834854        2.7416875701665875e-14              3.7000000000000021e-11       
                       5.8804897392612777e-18                            4353                                         907.69104856658976                   -9.5529306126484529e-10                 -2.6205551006196657e-23              1.9791556269234612e-19             1.1838715556925234                     1.1838715556925234                       1.1838715556925234             6.5154998035364286e-19   5.0310241962152891e-18      755                           19                          38                    0.93088310834695898  0.078382692346748398  0.0097234755485273907        2.7447854373957367e-14              3.8000000000000024e-11       
                       5.8795143878719334e-18                            4468                                         913.79245292504709                   -9.9550987667908562e-10                 -2.7288243008992066e-23              2.032566264740821e-19             1.1986359417753558                     1.1986359417753558                       1.1986359417753558             6.5953422668925026e-19   5.0167235347086008e-18      775                           19                          39                    0.92865287062391477  0.075816929773873276  0.0099854781790771185        2.7426705099935294e-14              3.9000000000000027e-11       
                       5.8784986378816218e-18                            4583                                         921.25132074501846                   -1.0360870742533797e-09                 -2.8382306234595073e-23              2.0870912642650734e-19             1.2133991526870525                     1.2133991526870525                       1.2133991526870525             6.6789894855711699e-19   5.0018905628979973e-18      795                           19                          40                    0.92633527845811703  0.07318011122590054  0.010251332310416273        2.7408634811763304e-14              4.000000000000003e-11       
                       5.8774421408522697e-18                            4698                                         922.20930483193342                   -1.0770012274165874e-09                 -2.9469949016707949e-23              2.142728773116808e-19             1.228537563709756                      1.228537563709756                        1.228537563709756              6.7665294339798836e-19   4.9865163201426002e-18      815                           19                          41                    0.92392869190531246  0.070471995499388276  0.010521326552383711        2.7377373374675658e-14              4.1000000000000033e-11       
                       5.8763445707756042e-18                            4813                                         930.53200955383306                   -1.1182307398710107e-09                 -3.0605193192006189e-23              2.1994787071804082e-19             1.243978142421716                      1.243978142421716                        1.243978142421716              6.85804803250005e-19   4.9705918968075585e-18      835                           19                          42                    0.92143147475853426  0.067692374305114961  0.010795739902334173        2.738328713746853e-14              4.2000000000000036e-11       
                       5.8752056228040076e-18                            4928                                         930.74947078143975                   -1.1597548087419348e-09                 -3.169751331712337e-23              2.2573426417216919e-19             1.259535471873747                      1.259535471873747                        1.259535471873747              6.9536291961643831e-19   4.9541084390154e-18      855                           19                          43                    0.91884199470946282  0.064841076388735458  0.011074840671595995        2.7344761902970911e-14              4.3000000000000039e-11       